/*--------------------------------*- C++ -*----------------------------------*\
  =========                 |
  \\      /  F ield         | OpenFOAM: The Open Source CFD Toolbox
   \\    /   O peration     | Website:  https://openfoam.org
    \\  /    A nd           | Version:  7
     \\/     M anipulation  |
\*---------------------------------------------------------------------------*/
FoamFile
{
    version     2.0;
    format      ascii;
    class       volScalarField;
    location    "0";
    object      yPlus;
}
// * * * * * * * * * * * * * * * * * * * * * * * * * * * * * * * * * * * * * //

dimensions      [0 0 0 0 0 0 0];

internalField   uniform 0;

boundaryField
{
    inlet-geom-5-volumenk-rper2111
    {
        type            calculated;
        value           uniform 0;
    }
    inlet-geom-5-volumenk-rper211
    {
        type            calculated;
        value           uniform 0;
    }
    sides-geom-5-out_3
    {
        type            calculated;
        value           nonuniform List<scalar> 
46
(
2.32922
2.37982
2.42953
2.47777
2.5253
2.5715
2.61712
2.6615
2.70545
2.74822
2.79069
2.83206
2.87322
2.91337
2.95341
2.99251
3.03158
3.0698
3.10809
3.14563
3.18329
3.22035
3.25761
3.2944
3.33151
3.36829
3.40552
3.44264
3.48036
3.51821
3.55689
3.59605
3.63634
3.67757
3.72043
3.7649
3.81177
3.86131
3.91457
3.97243
4.03646
4.10882
4.19261
4.29283
4.4168
4.57693
)
;
    }
    sides-geom-5-volumenk-rper211
    {
        type            calculated;
        value           nonuniform List<scalar> 
583
(
65.5909
68.3013
67.9011
60.1121
51.6522
41.9077
29.3612
4.04942
27.7004
30.3797
30.4702
30.5872
30.6929
30.7835
30.8642
29.3826
29.1731
29.238
29.3041
29.3919
29.4888
29.5826
29.2043
28.0349
28.1492
28.2603
28.3673
28.4744
28.5776
28.6796
27.9198
27.6394
27.777
27.9077
28.0255
28.1307
28.2231
28.2285
27.2428
27.3258
27.4137
27.5063
27.5925
27.6719
27.7463
27.2807
26.8571
26.9233
26.9825
27.0341
27.0791
27.1177
27.1615
26.5782
26.5355
26.5535
26.559
26.5523
26.5337
26.5046
26.3247
25.9729
25.9243
25.8692
25.8064
25.7369
25.6625
25.5836
25.3778
25.2345
25.1364
25.0365
24.9384
24.845
24.7585
24.6687
24.5774
24.483
24.3863
24.2854
24.1811
24.0728
23.9682
23.8751
23.7863
23.6982
23.6092
23.5213
23.4325
23.3447
23.257
23.1716
23.0892
23.0137
22.9512
22.892
22.829
22.7639
22.6962
22.6235
22.5458
22.4613
22.3719
22.2795
22.2004
22.1272
22.0526
21.9769
21.8997
21.8211
21.742
21.6621
21.5836
21.5122
21.4548
21.4026
21.3514
21.2951
21.2362
21.1723
21.1018
21.0232
20.9353
20.838
20.7336
20.6407
20.5551
20.4656
20.3718
20.2716
20.1663
20.0535
19.9338
19.8098
19.6883
19.4708
19.216
18.4499
17.792
17.353
17.076
16.9018
16.7586
16.5646
16.2378
15.6835
14.9631
14.2597
13.6362
13.0586
12.4918
11.8963
11.2206
10.409
9.49632
8.78027
8.51563
8.66735
9.12029
9.75164
10.4477
11.1408
11.7751
12.283
12.5771
12.5778
12.1743
11.4635
10.7181
10.0451
9.39603
8.70536
7.8867
6.79012
5.26993
3.66286
2.75315
3.20231
4.4351
5.841
7.21453
8.47101
9.57714
10.5136
11.2298
11.6344
11.6258
11.0855
10.161
9.18288
8.25653
7.29201
6.14798
4.51407
0.660336
4.39411
5.53449
5.52336
4.64846
2.52182
3.68819
6.05681
7.81429
9.22498
10.351
11.1761
11.5282
11.3108
10.5059
9.31891
8.05451
6.75102
5.1922
2.65871
4.04494
6.37888
7.59117
7.86523
7.39391
6.25987
4.19767
2.86598
6.06497
8.13525
9.72455
10.9072
11.5837
11.6494
11.1027
9.96938
8.47436
6.8374
4.88064
0.755496
5.00831
7.32226
8.85802
9.46123
9.22362
8.33864
6.79826
4.15851
3.94033
7.11811
9.26005
10.7538
11.6224
11.9331
11.6506
10.7231
9.20189
7.30788
4.99725
1.62899
5.69788
8.04687
9.67285
10.5201
10.5582
9.85558
8.49226
6.30819
1.47878
6.26048
9.00059
10.7511
11.7528
12.1802
12.1165
11.4568
10.0884
8.1123
5.60259
0.911215
5.83585
8.45588
10.4355
11.5221
11.7292
11.2036
9.95792
7.91787
4.40034
5.37449
8.77614
10.7727
11.8876
12.3965
12.4204
11.9618
10.8316
8.87747
6.17809
0.373377
6.17586
8.91772
10.979
12.2581
12.6353
12.2207
11.0968
9.12309
5.79553
4.66166
8.72596
10.9651
12.1686
12.7113
12.7836
12.3965
11.4633
9.68145
6.94761
2.03744
6.26403
9.29332
11.5597
12.9738
13.4464
13.0793
11.9663
10.0132
6.63125
4.47845
8.90876
11.1699
12.4651
13.0851
13.1849
12.8414
11.9846
10.3983
7.76411
3.23571
6.15447
9.44269
12.0339
13.7368
14.3061
13.9262
12.7467
10.6684
7.09628
4.44069
9.10133
11.3987
12.6907
13.3803
13.5485
13.2264
12.4033
10.8975
8.33965
3.86942
6.25907
9.75525
12.4311
14.3109
15.0862
14.7428
13.4693
11.2275
7.31619
5.18115
9.69721
11.8642
13.0908
13.74
13.9413
13.6683
12.8588
11.3819
8.86827
4.41273
6.38676
10.1464
12.8725
14.7292
15.518
15.2305
13.8488
11.2607
6.79745
6.03428
10.2765
12.4071
13.578
14.1841
14.3496
14.1004
13.3438
11.8964
9.41876
5.03802
6.35761
10.4359
13.3786
15.2683
15.9885
15.5939
14.1215
11.2223
5.6889
7.53406
11.2061
13.1986
14.319
14.8602
14.9695
14.676
13.9324
12.5591
10.1638
5.98584
5.9092
10.4156
13.7201
15.7362
16.338
15.7193
13.8886
10.464
3.19488
8.97361
12.1973
14.0126
15.0917
15.6281
15.7014
15.3657
14.5892
13.2356
10.9427
6.97128
5.23646
10.284
13.7604
15.9828
16.5328
15.6106
13.3038
8.90081
5.321
10.9197
13.6165
15.2018
16.1482
16.6408
16.7133
16.3502
15.5381
14.1668
11.9244
8.19898
3.77951
9.90264
13.422
15.4915
15.9786
14.7395
11.6432
5.04578
9.34703
13.3815
15.6296
16.9687
17.7618
18.1548
18.196
17.859
17.0638
15.7215
13.5939
10.3154
4.54637
8.30208
12.274
14.2192
14.2989
12.4549
7.59485
7.95974
13.2779
16.2851
18.1687
19.3459
20.0258
20.3424
20.3443
20.0257
19.327
18.1098
16.2076
13.4767
9.64228
1.57665
9.13128
11.0751
10.3329
6.0066
9.0841
14.7338
18.2611
20.5895
22.2288
23.4661
23.4534
23.3495
23.261
23.1794
23.1049
23.0367
21.5293
19.634
17.49
15.0145
12.9174
13.1029
15.9338
20.2385
24.0466
24.0671
24.0063
23.944
23.8827
23.8217
23.7605
23.6926
23.6131
23.5346
23.459
23.3865
23.3151
23.2768
23.2739
23.2768
23.361
23.4262
23.3552
23.2862
23.2308
23.1882
23.1561
23.1323
23.115
23.1004
23.0868
23.0746
23.0593
23.0393
23.0113
22.9778
22.9376
22.8941
16.7063
13.6272
8.43495
3.77528
4.11159
4.23479
4.41642
4.63298
4.8647
5.1092
5.36825
5.65701
5.98925
6.38634
6.88053
7.53387
8.43775
9.55988
10.5545
11.0238
10.873
10.2936
9.52985
8.67424
7.73247
6.7972
6.01675
14.4152
24.3124
)
;
    }
    sides-geom-5-volumenk-rper1111
    {
        type            calculated;
        value           nonuniform List<scalar> 
279
(
2.28853
2.2589
2.22866
2.19807
2.16686
2.13525
2.10298
2.07025
2.03682
2.00286
1.96812
1.93279
1.8966
1.85973
1.8219
1.78328
1.74356
1.70293
1.66104
1.61806
1.5736
1.52782
1.48025
1.43103
1.37962
1.32606
1.26968
1.2104
1.14727
1.07998
1.00704
0.927494
0.838568
0.737283
0.616106
0.46003
0.193737
0.18375
0.071176
0.188221
0.179521
0.0758821
0.303471
0.58298
0.796871
0.959725
1.05795
1.14933
1.22946
1.316
1.38122
1.45805
1.5193
1.55292
1.59006
1.62878
1.66884
1.70903
1.74962
1.78973
1.82983
1.86921
1.90843
1.94685
1.98505
2.02244
2.05962
2.09602
2.13221
2.16765
2.20292
2.23748
2.27189
2.30563
2.33925
2.37223
2.40512
2.4374
2.46962
2.50125
2.53285
2.56388
2.59491
2.62539
2.65588
2.68585
2.71585
2.74536
2.77489
2.80397
2.83307
2.86174
2.89046
2.91874
2.94709
2.97504
3.00305
3.03066
3.05836
3.08567
3.11307
3.1401
3.16723
3.19399
3.22087
3.24738
3.27402
3.30031
3.32673
3.35281
3.37902
3.4049
3.43093
3.45662
3.48247
3.508
3.53367
3.55905
3.58457
3.6098
3.63518
3.66027
3.68552
3.7105
3.73562
3.76047
3.78549
3.81023
3.83514
3.85979
3.8846
3.90916
3.93388
3.95836
3.983
4.0074
4.03196
4.05629
4.08079
4.10505
4.12948
4.15369
4.17807
4.20222
4.22654
4.25064
4.27492
4.29898
4.32322
4.34723
4.37143
4.39542
4.41957
4.44353
4.46766
4.49159
4.51569
4.53959
4.56368
4.58756
4.61162
4.63549
4.65953
4.68339
4.70742
4.73126
4.7553
4.77913
4.80315
4.82698
4.851
4.87483
4.89885
4.92268
4.94669
4.97052
4.99454
5.01836
5.04239
5.06621
5.09024
5.11407
5.13809
5.16193
5.18598
5.20985
5.23394
5.25781
5.28195
5.30598
5.3301
5.35429
20.9848
19.0234
17.4939
16.2735
15.2792
14.4542
13.7589
13.1647
12.6509
12.2022
11.8068
11.4557
11.1416
10.859
10.6033
10.3707
10.158
9.96264
9.7825
9.61571
9.46066
9.31603
9.18064
9.05353
8.93376
8.8206
8.71332
8.61147
8.51435
8.42168
8.33291
8.24779
8.16589
8.087
8.01083
7.93721
7.86581
7.79657
7.72923
7.6637
7.59981
7.53745
7.47647
7.41681
7.35834
7.30102
7.24471
7.1894
7.13497
7.08141
7.0286
6.97656
6.92518
6.87446
6.82432
6.77476
6.7257
6.67716
6.62906
6.58141
6.53413
6.48726
6.44072
6.39454
6.34864
6.30307
6.25774
6.2127
6.16786
6.12328
6.07888
6.03471
5.99069
5.94687
5.90318
5.85966
5.81625
5.77299
5.72982
5.68678
5.6438
5.60096
5.55816
5.51548
5.47284
5.43021
5.38759
)
;
    }
    sides-geom-5-out_2
    {
        type            calculated;
        value           nonuniform List<scalar> 
385
(
4.79183
5.09385
5.05328
4.93839
4.88756
4.83835
4.79714
4.76093
4.72967
4.69661
4.67165
4.64322
4.61786
4.59297
4.56826
4.54373
4.52057
4.4928
4.47091
4.44343
4.41734
4.39037
4.36397
4.33223
4.30528
4.27095
4.24181
4.20616
4.17092
4.13406
4.09674
4.05305
4.0133
3.9667
3.91948
3.86942
3.81825
3.75944
3.70357
3.63771
3.57425
3.50198
3.42655
3.34635
3.26206
3.16706
3.07201
2.96517
2.85057
2.72909
2.59629
2.45398
2.3007
2.12833
1.94919
1.74667
1.51996
1.26706
0.9652
0.508199
0.227537
0.398228
0.486888
0.558987
0.62705
0.648851
0.678706
0.711854
0.719331
0.734491
0.760842
0.762858
0.776395
0.800398
0.802914
0.827145
0.829876
0.84426
0.867188
0.872331
0.885504
0.910691
0.914829
0.931489
0.954358
0.962849
0.985839
0.995364
1.01
1.03708
1.04384
1.0633
1.08646
1.09861
1.1143
1.14239
1.15097
1.17215
1.19583
1.21045
1.23434
1.24976
1.26724
1.29669
1.30802
1.33139
1.35608
1.37361
1.39239
1.42262
1.43583
1.46623
1.47995
1.50484
1.53033
1.54993
1.57016
1.60096
1.61629
1.6421
1.6683
1.68939
1.71103
1.74254
1.75978
1.79157
1.80947
1.83688
1.86457
1.88774
1.91136
1.94384
1.96353
1.992
2.02085
2.04551
2.07482
2.10008
2.12597
2.15984
2.18249
2.21303
2.24424
2.27164
2.29989
2.33546
2.36097
2.39718
2.42369
2.45713
2.49158
2.52235
2.55434
2.59261
2.62229
2.65807
2.69515
2.72856
2.76347
2.80388
2.83672
2.87786
2.91179
2.95079
2.99152
3.02849
3.06737
3.1107
3.14776
3.18911
3.23257
3.2722
3.31679
3.35756
3.40076
3.44736
3.48871
3.53295
3.57928
3.62125
3.66603
3.71423
3.75931
3.80821
3.86085
3.9095
3.96244
4.00932
4.05667
4.10348
4.14514
4.18826
4.23576
4.28228
4.33655
4.39763
4.46011
4.52822
4.59292
4.65556
4.71502
4.76328
4.80745
4.84765
4.88217
4.91788
4.9591
5.00269
5.05729
5.12325
5.19569
5.27738
5.35778
5.4358
5.50724
5.56149
5.60426
5.63749
5.65888
5.67632
5.68505
5.69143
5.69614
5.69659
5.70088
5.7178
5.75367
5.82436
5.92201
6.03232
6.14785
6.25019
6.32858
6.39082
6.44127
6.49012
6.53633
6.57736
6.6147
6.64541
6.66117
6.6677
6.65703
6.6352
6.60259
6.56764
6.56564
6.68601
6.86222
7.05731
7.241
7.372
7.4566
7.53971
7.62974
7.72191
7.79898
7.87195
7.94498
8.01907
8.0941
8.16543
8.23345
8.30197
8.36601
8.43051
8.49079
8.54347
8.58552
8.6143
8.61501
8.57756
8.46423
8.22133
8.14674
8.63158
8.93589
9.14909
9.31139
9.44671
9.56479
9.67431
9.77715
9.87754
9.97506
10.0724
10.1685
10.2654
10.3617
10.4594
10.5569
10.6559
10.755
10.8558
10.9568
11.0596
11.1629
11.2679
11.3736
11.481
11.5892
11.6992
11.8101
11.9228
12.0365
12.1521
12.2688
12.3874
12.5073
12.629
12.7522
12.8773
13.0039
13.1325
13.2628
13.3951
13.5291
13.6653
13.8034
13.9437
14.0861
14.2307
14.3776
14.5267
14.6784
14.8324
14.9891
15.1483
15.3104
15.4751
15.6428
15.8134
15.9873
16.1642
16.3447
16.5284
16.716
16.907
17.1022
17.3013
17.5049
17.7126
17.9253
18.1426
18.3653
18.5932
18.8271
19.0666
19.3129
19.5657
19.8259
20.0935
20.3697
20.6542
20.9486
21.2527
21.5681
21.8951
22.2353
22.5892
22.9588
23.3451
23.7504
24.1761
24.6251
25.0998
25.6037
26.1404
26.7148
27.3321
27.9994
28.7245
29.518
30.3923
31.3642
32.4542
33.6906
35.1095
36.7616
38.716
41.0707
43.9663
47.6079
52.2988
58.4903
)
;
    }
    ballute-geom-5-volumenk-rper
    {
        type            calculated;
        value           nonuniform List<scalar> 
20
(
5.5331
5.3912
5.25761
5.14064
5.05254
5.00195
4.99883
5.04488
5.13961
5.28099
5.46423
5.68388
5.91987
6.16291
6.39567
6.61181
6.80797
6.98231
7.14506
7.29598
)
;
    }
    ballute-geom-5-volumenk-rper1
    {
        type            calculated;
        value           nonuniform List<scalar> 
95
(
5.94731
6.85783
8.87493
10.4991
11.2533
11.7948
12.3161
12.8816
13.3561
13.7403
14.0006
14.0769
13.9326
13.639
13.3395
13.1602
13.1537
13.2626
13.3355
13.169
12.5277
11.4447
11.8485
13.6342
14.8999
15.5545
15.6325
14.9974
13.3408
9.47646
9.20942
12.3088
13.1419
13.4812
13.7677
13.9642
14.0382
14.0207
13.9868
13.9248
13.8206
13.6671
13.4003
12.9983
12.454
11.7049
10.6786
9.44832
8.09301
6.86862
6.09248
7.28055
7.08774
6.85514
6.58634
6.30547
6.04976
5.85035
5.72085
5.65852
5.6526
5.68858
5.7541
5.84225
5.95192
6.08598
6.23984
6.40092
6.55972
6.71091
6.85214
6.98137
7.09749
7.12925
7.08096
7.03017
6.97642
6.92035
6.86254
6.8014
6.73494
6.66291
6.58772
6.5146
6.45062
6.40413
6.38316
6.39214
6.42657
6.47583
6.53131
6.58783
6.64252
6.69368
6.74125
)
;
    }
    ballute-geom-5-volumenk-rper21
    {
        type            calculated;
        value           nonuniform List<scalar> 
133
(
5.92291
5.69325
5.46066
5.22464
5.00318
4.807
4.63096
4.4735
4.33041
4.20432
4.10549
4.0443
4.02706
4.05536
4.12595
4.23592
4.36819
4.51316
4.67165
4.82739
4.98294
5.13999
5.29189
5.44671
5.05224
4.96417
4.87894
4.79264
4.70887
4.62707
4.54682
4.4781
4.42136
4.38206
4.36868
4.38458
4.42996
4.50121
4.59278
4.70337
4.82276
4.95373
5.0973
5.24645
5.40496
5.57369
5.74277
5.9116
5.94392
5.84043
5.72735
5.59917
5.45786
5.29592
5.10232
4.88264
4.63214
4.39812
4.31112
4.41547
4.59732
4.68993
4.67456
4.60014
4.50912
4.43942
4.42937
4.49076
4.59594
4.69324
4.76445
4.79945
5.45952
5.33141
5.20902
5.08846
4.97448
4.86707
4.76668
4.68321
4.61491
4.56348
4.5332
4.52162
4.52696
4.54627
4.5759
4.61566
4.66076
4.70932
4.76418
4.82045
4.87897
4.94022
5.00163
5.06615
5.74996
7.09846
8.09277
9.07062
9.98319
10.8748
11.5642
11.8397
11.5001
10.6292
11.1988
13.0799
14.4706
15.2637
15.1352
13.564
9.71762
9.48026
12.6976
13.7237
13.9478
13.9171
13.8223
13.7178
13.6048
13.464
13.2432
12.8647
12.2784
11.5397
10.5618
9.4483
8.33675
7.46009
6.63981
6.30344
5.45215
)
;
    }
    ballute-geom-5-volumenk-rper2
    {
        type            calculated;
        value           nonuniform List<scalar> 
109
(
5.42641
5.33632
5.24498
5.15249
5.06104
4.97476
4.89981
4.83779
4.79024
4.75844
4.74303
4.74418
4.76177
4.79495
4.84209
4.90087
4.96787
5.03871
5.10812
5.17188
5.22594
5.26969
5.30546
5.33516
4.33076
4.51047
4.65919
4.77037
4.82893
4.81083
4.69078
4.48638
4.26604
4.08805
3.95841
3.86616
3.80136
5.13428
5.00827
4.88812
4.77875
4.68578
4.61436
4.56749
4.5453
4.54508
4.56088
4.58563
4.6126
4.6369
4.65551
4.66693
4.67027
4.6649
4.64997
4.62467
4.5873
4.53594
4.4691
4.38617
4.28802
5.42356
5.32643
5.22767
5.12443
5.01963
4.91959
4.82693
4.74341
4.67006
4.60859
4.56072
4.52765
4.5106
4.51065
4.52827
4.56311
4.61397
4.67868
4.75392
4.83521
4.91847
5.00081
5.08084
5.15934
5.17799
5.10701
5.03758
4.96772
4.90036
4.83547
4.77327
4.71897
4.67087
4.63084
4.60423
4.5926
4.59863
4.62262
4.66308
4.7183
4.78373
4.85726
4.93697
5.01529
5.09229
5.16861
5.24169
5.31352
)
;
    }
    outlet-geom-5-volumenk-rper
    {
        type            calculated;
        value           uniform 0;
    }
    outlet-geom-5-volumenk-rper211
    {
        type            calculated;
        value           uniform 0;
    }
    symmetry-geom-5-volumenk-rper
    {
        type            symmetry;
    }
    symmetry-geom-5-volumenk-rper11111111111
    {
        type            symmetry;
    }
    symmetry-geom-5-volumenk-rper111111111111
    {
        type            symmetry;
    }
    symmetry-geom-5-volumenk-rper1
    {
        type            symmetry;
    }
    symmetry-geom-5-volumenk-rper2111
    {
        type            symmetry;
    }
    empty-geom-5-mid_1
    {
        type            empty;
    }
    empty-geom-5-volumenk-rper
    {
        type            empty;
    }
    empty-geom-5-volumenk-rper1
    {
        type            empty;
    }
    empty-geom-5-mid_3
    {
        type            empty;
    }
    empty-geom-5-volumenk-rper11111111111
    {
        type            empty;
    }
    empty-geom-5-volumenk-rper111111111111
    {
        type            empty;
    }
    empty-geom-5-volumenk-rper11111
    {
        type            empty;
    }
    empty-geom-5-volumenk-rper21
    {
        type            empty;
    }
    empty-geom-5-mid_5
    {
        type            empty;
    }
    empty-geom-5-volumenk-rper1111
    {
        type            empty;
    }
    empty-geom-5-volumenk-rper111111
    {
        type            empty;
    }
    empty-geom-5-volumenk-rper11
    {
        type            empty;
    }
    empty-geom-5-mid_2
    {
        type            empty;
    }
    empty-geom-5-volumenk-rper11111111
    {
        type            empty;
    }
    empty-geom-5-volumenk-rper2111
    {
        type            empty;
    }
    empty-geom-5-out_3
    {
        type            empty;
    }
    empty-geom-5-volumenk-rper211
    {
        type            empty;
    }
    empty-geom-5-volumenk-rper111
    {
        type            empty;
    }
    empty-geom-5-out_2
    {
        type            empty;
    }
    empty-geom-5-mid_6
    {
        type            empty;
    }
    empty-geom-5-volumenk-rper1111111
    {
        type            empty;
    }
    empty-geom-5-volumenk-rper111111111
    {
        type            empty;
    }
    empty-geom-5-volumenk-rper2
    {
        type            empty;
    }
}


// ************************************************************************* //
